<?xml version="1.0"?>
<VTKFile type="UnstructuredGrid" version="0.1" byte_order="LittleEndian" compressor="vtkZLibDataCompressor">
<UnstructuredGrid>
<Piece NumberOfPoints="16" NumberOfCells="5">
<PointData>
<DataArray type="Float64" Name="displacement" NumberOfComponents="3" format="ascii" >
0.0 0.0 0.0 0.00024 0.00012 0.0 0.0003 0.00024 0.0 6e-05 0.00012 0.0 4.999999999999998e-05 3.999999999999996e-05 0.0 0.00019499999999999997 0.00012000000000000007 0.0 0.00019999999999999996 0.00016000000000000015 0.0 0.00011999999999999998 0.00011999999999999994 0.0 0.0 0.0 -3.333333333333334e-05 0.00024 0.00012 -3.333333333333334e-05 0.0003 0.00024 -3.333333333333336e-05 6e-05 0.00012 -3.3333333333333294e-05 5.000000000000003e-05 4.000000000000001e-05 -3.3333333333333294e-05 0.00019499999999999992 0.00012000000000000002 -3.3333333333333376e-05 0.00019999999999999998 0.00016000000000000007 -3.33333333333333e-05 0.00011999999999999998 0.00011999999999999999 -3.333333333333334e-05 </DataArray>
<DataArray type="Float64" Name="S11" NumberOfComponents="1" format="ascii" >
1333.333333333333 
1333.3333333333333 
1333.3333333333337 
1333.3333333333333 
1333.3333333333328 
1333.3333333333328 
1333.3333333333333 
1333.3333333333328 
1333.333333333333 
1333.3333333333333 
1333.3333333333337 
1333.3333333333333 
1333.3333333333328 
1333.3333333333328 
1333.3333333333333 
1333.3333333333328 
</DataArray>
<DataArray type="Float64" Name="S22" NumberOfComponents="1" format="ascii" >
1333.3333333333335 
1333.333333333334 
1333.3333333333335 
1333.3333333333335 
1333.3333333333333 
1333.3333333333337 
1333.3333333333333 
1333.3333333333333 
1333.3333333333335 
1333.333333333334 
1333.3333333333335 
1333.3333333333335 
1333.3333333333333 
1333.3333333333337 
1333.3333333333333 
1333.3333333333333 
</DataArray>
<DataArray type="Float64" Name="S33" NumberOfComponents="1" format="ascii" >
1.5987211554602254e-13 
3.197442310920451e-14 
1.4210854715202004e-14 
1.4210854715202004e-13 
1.1842378929335004e-13 
3.315866100213801e-14 
2.1316282072803006e-14 
1.0658141036401503e-13 
1.5987211554602254e-13 
3.197442310920451e-14 
1.4210854715202004e-14 
1.4210854715202004e-13 
1.1842378929335004e-13 
3.315866100213801e-14 
2.1316282072803006e-14 
1.0658141036401503e-13 
</DataArray>
<DataArray type="Float64" Name="S23" NumberOfComponents="1" format="ascii" >
1.0299920638612292e-13 
-7.301424005332069e-14 
-1.306124804666131e-13 
4.54009659728305e-14 
7.036020348525722e-14 
-4.6982094141038523e-14 
-8.538092108323347e-14 
3.196137654306227e-14 
1.0299920638612292e-13 
-7.301424005332069e-14 
-1.306124804666131e-13 
4.54009659728305e-14 
7.036020348525722e-14 
-4.6982094141038523e-14 
-8.538092108323347e-14 
3.196137654306227e-14 
</DataArray>
<DataArray type="Float64" Name="S13" NumberOfComponents="1" format="ascii" >
-2.261577969168982e-14 
-1.2121041475209038e-13 
-3.5744790374131474e-14 
6.284984468626909e-14 
1.5811281682080274e-15 
-6.414862853872567e-14 
-7.171545620086409e-15 
5.855821108684729e-14 
-2.261577969168982e-14 
-1.2121041475209038e-13 
-3.5744790374131474e-14 
6.284984468626909e-14 
1.5811281682080274e-15 
-6.414862853872567e-14 
-7.171545620086409e-15 
5.855821108684729e-14 
</DataArray>
<DataArray type="Float64" Name="S12" NumberOfComponents="1" format="ascii" >
399.9999999999997 
399.9999999999996 
400.0000000000001 
400.00000000000017 
399.99999999999983 
399.9999999999998 
400.00000000000017 
400.00000000000017 
399.9999999999997 
399.9999999999996 
400.0000000000001 
400.00000000000017 
399.99999999999983 
399.9999999999998 
400.00000000000017 
400.00000000000017 
</DataArray>
</PointData>
<CellData>
</CellData>
<Points>
<DataArray type="Float64" Name="Points" NumberOfComponents="3" format="ascii">
0.0 0.0 0.0
0.24 0.0 0.0
0.24 0.12 0.0
0.0 0.12 0.0
0.04 0.02 0.0
0.18 0.03 0.0
0.16 0.08 0.0
0.08 0.08 0.0
0.0 0.0 0.05
0.24 0.0 0.05
0.24 0.12 0.05
0.0 0.12 0.05
0.04 0.02 0.05
0.18 0.03 0.05
0.16 0.08 0.05
0.08 0.08 0.05
</DataArray>
</Points>
<Cells>
<DataArray type="Int64" Name="connectivity" format="ascii">
0 1 4 5 8 9 12 13 
0 3 4 7 8 11 12 15 
1 2 5 6 9 10 13 14 
2 3 6 7 10 11 14 15 
4 5 6 7 12 13 14 15 
</DataArray>
<DataArray type="Int64" Name="offsets" format="ascii">
8
16
24
32
40
</DataArray>
<DataArray type="UInt8" Name="types" format="ascii">
12
12
12
12
12
</DataArray>
</Cells>
</Piece>
</UnstructuredGrid>
</VTKFile>
