<?xml version="1.0"?>
<VTKFile type="UnstructuredGrid" version="0.1" byte_order="LittleEndian" compressor="vtkZLibDataCompressor">
<UnstructuredGrid>
<Piece NumberOfPoints="16" NumberOfCells="5">
<PointData>
<DataArray type="Float64" Name="displacement" NumberOfComponents="3" format="ascii" >
0.0 0.0 0.0 0.00024 0.00012 0.0 0.0003 0.00024 0.0 6e-05 0.00012 0.0 nan nan 0.0 nan nan 0.0 nan nan 0.0 nan nan 0.0 0.0 0.0 nan 0.00024 0.00012 nan 0.0003 0.00024 nan 6e-05 0.00012 nan nan nan nan nan nan nan nan nan nan nan nan nan </DataArray>
</PointData>
<CellData>
</CellData>
<Points>
<DataArray type="Float64" Name="Points" NumberOfComponents="3" format="ascii">
0.0 0.0 0.0
0.24 0.0 0.0
0.24 0.12 0.0
0.0 0.12 0.0
0.04 0.02 0.0
0.18 0.03 0.0
0.16 0.08 0.0
0.08 0.08 0.0
0.0 0.0 0.05
0.24 0.0 0.05
0.24 0.12 0.05
0.0 0.12 0.05
0.04 0.02 0.05
0.18 0.03 0.05
0.16 0.08 0.05
0.08 0.08 0.05
</DataArray>
</Points>
<Cells>
<DataArray type="Int64" Name="connectivity" format="ascii">
0 1 4 5 8 9 12 13 
0 3 4 7 8 11 12 15 
1 2 5 6 9 10 13 14 
2 3 6 7 10 11 14 15 
4 5 6 7 12 13 14 15 
</DataArray>
<DataArray type="Int64" Name="offsets" format="ascii">
8
16
24
32
40
</DataArray>
<DataArray type="UInt8" Name="types" format="ascii">
12
12
12
12
12
</DataArray>
</Cells>
</Piece>
</UnstructuredGrid>
</VTKFile>
