<?xml version="1.0"?>
<VTKFile type="UnstructuredGrid" version="0.1" byte_order="LittleEndian" compressor="vtkZLibDataCompressor">
<UnstructuredGrid>
<Piece NumberOfPoints="100" NumberOfCells="81">
<PointData>
<DataArray type="Float64" Name="displacement" NumberOfComponents="3" format="ascii" >
0.0 0.0  0.
2.5 0.0  0.
2.5 0.0  0.
0.0 0.0  0.
0.3432904172484624 0.22967012713685753  0.
0.6146665127900456 0.32971226182636826  0.
0.869926186193127 0.38598816991889556  0.
1.1233224369538672 0.40986833131995515  0.
1.376677563040793 0.40986833132019673  0.
1.63007381380294 0.385988169919491  0.
1.8853334872073417 0.32971226182713864  0.
2.1567095827500835 0.22967012713754253  0.
2.5 0.0  0.
2.5 0.0  0.
2.5 0.0  0.
2.5 0.0  0.
2.5 0.0  0.
2.5 0.0  0.
2.5 0.0  0.
2.5 0.0  0.
2.1567095827497256 -0.22967012713771467  0.
1.885333487209124 -0.3297122618265882  0.
1.6300738138070976 -0.38598816991884327  0.
1.3766775630473784 -0.4098683313198732  0.
1.1233224369607657 -0.40986833132023437  0.
0.86992618619822 -0.3859881699196207  0.
0.6146665127934076 -0.32971226182732194  0.
0.3432904172502147 -0.22967012713770857  0.
0.0 0.0  0.
0.0 0.0  0.
0.0 0.0  0.
0.0 0.0  0.
0.0 0.0  0.
0.0 0.0  0.
0.0 0.0  0.
0.0 0.0  0.
2.237244630038862 -0.13700466864403252  0.
2.246806220223284 -0.08721848407695013  0.
2.2496814360659037 -0.0496624144984169  0.
2.2500226337107834 -0.016191878917877447  0.
2.2500226337108247 0.016191878918370012  0.
2.2496814360660156 0.04966241449879319  0.
2.2468062202234473 0.08721848407721852  0.
2.2372446300390325 0.1370046686442028  0.
1.9462662029935345 -0.24329655464038077  0.
1.9719898094776727 -0.16074407831026788  0.
1.9783809141739912 -0.09224168265921269  0.
1.9799637089486022 -0.030130596122850933  0.
1.9799637089483895 0.03013059612342739  0.
1.9783809141733368 0.09224168265977678  0.
1.9719898094765342 0.16074407831091295  0.
1.9462662029918785 0.24329655464109642  0.
1.6644062707691543 -0.2978887968704284  0.
1.6844052189904213 -0.2079776141892219  0.
1.6922488309088017 -0.12170351793909873  0.
1.694274812282089 -0.040031649079694726  0.
1.6942748122815605 0.04003164907999104  0.
1.6922488309072072 0.12170351793950818  0.
1.6844052189877599 0.2079776141898287  0.
1.6644062707655245 0.29788879687119324  0.
1.3876415554085975 -0.32186079545377844  0.
1.3948718724195783 -0.22910340861378614  0.
1.3981319103586962 -0.13614657002713076  0.
1.399133235883573 -0.04503662663252992  0.
1.3991332358827206 0.045036626632332974  0.
1.3981319103561514 0.13614657002715197  0.
1.39487187241541 0.2291034086140637  0.
1.3876415554030201 0.32186079545425716  0.
1.112358444598598 -0.321860795454052  0.
1.105128127586268 -0.22910340861405146  0.
1.1018680896455273 -0.13614657002738884  0.
1.100866764118924 -0.045036626632803674  0.
1.100866764118027 0.04503662663207235  0.
1.101868089642851 0.13614657002692815  0.
1.1051281275819034 0.22910340861383965  0.
1.112358444592799 0.32186079545402596  0.
0.8355937292355352 -0.2978887968709983  0.
0.8155947810132991 -0.2079776141898186  0.
0.8077511690937643 -0.12170351793972214  0.
0.8057251877192895 -0.04003164908040774  0.
0.8057251877186311 0.040031649079282354  0.
0.8077511690917908 0.12170351793889048  0.
0.8155947810100505 0.20797761418921312  0.
0.8355937292312275 0.29788879687058534  0.
0.5537337970086101 -0.2432965546408627  0.
0.5280101905239045 -0.16074407831084678  0.
0.5216190858269387 -0.0922416826598944  0.
0.5200362910516926 -0.030130596123720738  0.
0.5200362910512807 0.03013059612251266  0.
0.5216190858256924 0.09224168265895234  0.
0.5280101905218092 0.16074407831006107  0.
0.5537337970057719 0.2432965546402198  0.
0.2627553699609764 -0.1370046686439158  0.
0.2531937797765007 -0.087218484077081  0.
0.25031856393373014 -0.04966241449877728  0.
0.24997736628870534 -0.016191878918494555  0.
0.24997736628852743 0.016191878917651743  0.
0.2503185639331843 0.04966241449811863  0.
0.25319377977557106 0.08721848407651547  0.
0.2627553699596926 0.13700466864340094  0.
</DataArray>
<DataArray type="Float64" Name="S11" NumberOfComponents="1" format="ascii" >
310584.9425641006 
310584.9425641723 
310584.94256401877 
310584.94256398827 
291010.8874699315 
265034.3524868628 
256609.77535009864 
254184.8065575271 
254184.8065575064 
256609.77535002446 
265034.3524867295 
291010.88746988756 
290117.9850997765 
267393.80035705306 
264635.8394969339 
264140.7925480151 
264140.7925480137 
264635.8394969193 
267393.80035699817 
290117.985099658 
291010.8874698376 
265034.3524868074 
256609.7753501057 
254184.8065575485 
254184.80655753217 
256609.775350051 
265034.3524867477 
291010.88746980095 
290117.9850996421 
267393.8003570072 
264635.83949692716 
264140.7925480061 
264140.7925479992 
264635.83949689823 
267393.80035696126 
290117.9850996744 
283345.2640054698 
273077.11851120327 
270053.4270226552 
269599.63550943916 
269599.63550944155 
270053.42702267016 
273077.1185112369 
283345.2640055159 
272058.38551609707 
278981.1730650217 
278947.9153937612 
279076.23856554256 
279076.2385655461 
278947.91539376945 
278981.1730650086 
272058.3855160403 
265649.1863187022 
278558.5014589955 
283714.51765043876 
285353.795680693 
285353.79568069614 
283714.5176504366 
278558.50145895354 
265649.1863186249 
263253.0167077818 
277632.91329904244 
285308.7099859596 
288293.84551230795 
288293.8455123115 
285308.70998596016 
277632.91329901473 
263253.0167077359 
263253.0167077612 
277632.9132990268 
285308.7099859579 
288293.84551231185 
288293.8455123159 
285308.7099859682 
277632.9132990342 
263253.0167077601 
265649.1863186508 
278558.5014589688 
283714.5176504412 
285353.7956807016 
285353.79568070115 
283714.51765044476 
278558.5014589917 
265649.18631869345 
272058.3855160555 
278981.1730650157 
278947.91539377085 
279076.2385655449 
279076.23856553715 
278947.91539374983 
278981.17306500935 
272058.3855161199 
283345.2640054511 
273077.1185112128 
270053.42702266463 
269599.63550943293 
269599.6355094241 
270053.4270226325 
273077.1185111731 
283345.26400549995 
</DataArray>
<DataArray type="Float64" Name="S22" NumberOfComponents="1" format="ascii" >
59048.894111281144 
59048.89411117805 
59048.8941111761 
59048.89411121434 
31784.43935524662 
3481.685143052494 
1387.3143877821506 
218.99349753988753 
218.9934975341065 
1387.3143877581253 
3481.685142955405 
31784.439355116225 
62517.600698711634 
68169.12579073038 
71165.56126080937 
72241.90042931504 
72241.90042932404 
71165.56126083263 
68169.12579076731 
62517.60069873333 
31784.439355134 
3481.6851429906674 
1387.3143877809716 
218.9934975407591 
218.99349753565275 
1387.3143877637574 
3481.6851429943927 
31784.43935516895 
62517.600698741604 
68169.12579074941 
71165.56126082498 
72241.90042933756 
72241.90042935981 
71165.5612608846 
68169.12579083358 
62517.60069882179 
39983.844978731926 
51936.9805377598 
57297.805906920774 
59376.84129588034 
59376.8412958649 
57297.80590687709 
51936.98053769147 
39983.84497868294 
11678.300606710029 
25117.25111029492 
32958.69430737373 
36345.330695032426 
36345.33069500672 
32958.6943072999 
25117.25111019132 
11678.300606636923 
3859.222651171909 
10156.075187129341 
16502.84255687135 
19874.834755874308 
19874.83475585056 
16502.842556804775 
10156.075187046557 
3859.222651120521 
1314.3667075727396 
4544.949807520994 
8685.346002102095 
11463.777664300733 
11463.777664294483 
8685.3460020816 
4544.949807493254 
1314.3667075559194 
1314.3667075552935 
4544.949807482952 
8685.34600206 
11463.777664274854 
11463.777664293722 
8685.346002101978 
4544.949807518773 
1314.3667075701221 
3859.222651122149 
10156.075187031047 
16502.84255677176 
19874.834755821066 
19874.83475586291 
16502.84255687492 
10156.075187138214 
3859.2226511772014 
11678.300606670244 
25117.251110199482 
32958.69430728707 
36345.33069500316 
36345.33069505322 
32958.694307418424 
25117.251110356883 
11678.300606775398 
39983.84497872859 
51936.98053771566 
57297.80590688776 
59376.84129588519 
59376.84129592066 
57297.80590698348 
51936.9805378425 
39983.84497883402 
</DataArray>
<DataArray type="Float64" Name="S12" NumberOfComponents="1" format="ascii" >
51505.154728580404 
-51505.15472850049 
51505.15472845073 
-51505.15472846852 
31590.540549511752 
7242.231167079703 
1634.2819412846736 
230.01395942854435 
-230.0139594137474 
-1634.2819412393483 
-7242.231166962544 
-31590.54054938921 
-45072.1179925215 
-31380.052074245177 
-17956.690065470797 
-5896.178619549733 
5896.178619350041 
17956.690065304043 
31380.052074117033 
45072.117992441265 
31590.54054939429 
7242.231167024095 
1634.2819412851484 
230.01395943404555 
-230.01395941097604 
-1634.281941242201 
-7242.231166985841 
-31590.54054939295 
-45072.11799246928 
-31380.052074199517 
-17956.690065477353 
-5896.178619595912 
5896.178619291777 
17956.690065259172 
31380.052074106075 
45072.117992511936 
31958.99334908191 
27001.71318082287 
16242.809098711376 
5404.818992231811 
-5404.818992387237 
-16242.809098834425 
-27001.713180893123 
-31958.993349099084 
12649.713396941268 
16647.0616513763 
11684.128564474255 
4065.664726507009 
-4065.6647265787715 
-11684.128564513054 
-16647.061651352964 
-12649.713396879786 
4145.869773648386 
7240.392106879545 
6259.530871173347 
2347.867567294329 
-2347.867567307488 
-6259.530871156989 
-7240.392106820622 
-4145.8697735855085 
919.0907295784264 
1905.0175992841375 
1839.8663727708768 
738.932523348089 
-738.9325233406587 
-1839.866372739169 
-1905.0175992303523 
-919.0907295386622 
-919.0907295298002 
-1905.0175992125053 
-1839.8663727243359 
-738.9325233401468 
738.9325233350859 
1839.8663727523276 
1905.0175992675918 
919.0907295686261 
-4145.869773579417 
-7240.392106804091 
-6259.530871150339 
-2347.867567322163 
2347.86756726915 
6259.530871153578 
7240.392106871529 
4145.869773647037 
-12649.713396885149 
-16647.061651340613 
-11684.128564517401 
-4065.6647266100103 
4065.664726468941 
11684.12856445261 
16647.061651384844 
12649.713396982017 
-31958.993349080207 
-27001.71318086533 
-16242.809098842505 
-5404.8189924299295 
5404.818992180336 
16242.809098677151 
27001.713180826097 
31958.99334915418 
</DataArray>
</PointData>
<CellData>
</CellData>
<Points>
<DataArray type="Float64" Name="Points" NumberOfComponents="3" format="ascii">
0.0 0.0 0.0
1.0 -0.0 0.0
1.0 1.0 0.0
0.0 1.0 0.0
0.1111111111109082 0.0 0.0
0.2222222222217143 0.0 0.0
0.333333333332501 0.0 0.0
0.4444444444432878 0.0 0.0
0.5555555555543833 0.0 0.0
0.6666666666657874 0.0 0.0
0.7777777777771916 0.0 0.0
0.8888888888885959 0.0 0.0
1.0 0.1111111111109082 0.0
1.0 0.2222222222217143 0.0
1.0 0.333333333332501 0.0
1.0 0.4444444444432878 0.0
1.0 0.5555555555543833 0.0
1.0 0.6666666666657874 0.0
1.0 0.7777777777771916 0.0
1.0 0.8888888888885959 0.0
0.8888888888884262 1.0 0.0
0.777777777777932 1.0 0.0
0.6666666666675918 1.0 0.0
0.5555555555572513 1.0 0.0
0.4444444444462943 1.0 0.0
0.3333333333347207 1.0 0.0
0.2222222222231471 1.0 0.0
0.1111111111115736 1.0 0.0
0.0 0.8888888888884262 0.0
0.0 0.777777777777932 0.0
0.0 0.6666666666675918 0.0
0.0 0.5555555555572513 0.0
0.0 0.4444444444462943 0.0
0.0 0.3333333333347207 0.0
0.0 0.2222222222231471 0.0
0.0 0.1111111111115736 0.0
0.8888888888884451 0.888888888888577 0.0
0.888888888888464 0.7777777777772739 0.0
0.8888888888884828 0.666666666665988 0.0
0.8888888888885016 0.555555555554702 0.0
0.8888888888885206 0.444444444443622 0.0
0.8888888888885391 0.3333333333327477 0.0
0.8888888888885583 0.2222222222218735 0.0
0.8888888888885771 0.1111111111109822 0.0
0.7777777777778496 0.8888888888885583 0.0
0.7777777777777675 0.7777777777773562 0.0
0.7777777777776853 0.6666666666661885 0.0
0.7777777777776029 0.5555555555550207 0.0
0.7777777777775208 0.4444444444439559 0.0
0.7777777777774384 0.3333333333329943 0.0
0.7777777777773562 0.2222222222220327 0.0
0.7777777777772739 0.1111111111110561 0.0
0.6666666666673913 0.8888888888885392 0.0
0.666666666667191 0.7777777777774384 0.0
0.6666666666669905 0.666666666666389 0.0
0.6666666666667898 0.5555555555553393 0.0
0.6666666666665892 0.44444444444429 0.0
0.666666666666389 0.3333333333332409 0.0
0.6666666666661885 0.2222222222221919 0.0
0.666666666665988 0.11111111111113 0.0
0.5555555555569327 0.8888888888885205 0.0
0.5555555555566141 0.7777777777775208 0.0
0.5555555555562954 0.6666666666665892 0.0
0.5555555555559768 0.5555555555556579 0.0
0.5555555555556579 0.4444444444446241 0.0
0.5555555555553393 0.3333333333334876 0.0
0.5555555555550207 0.2222222222223511 0.0
0.555555555554702 0.1111111111112039 0.0
0.4444444444459602 0.8888888888885015 0.0
0.4444444444456262 0.7777777777776029 0.0
0.4444444444452922 0.66666666666679 0.0
0.4444444444449581 0.5555555555559768 0.0
0.4444444444446241 0.4444444444449581 0.0
0.44444444444429 0.3333333333337342 0.0
0.4444444444439559 0.2222222222225103 0.0
0.4444444444436219 0.1111111111112779 0.0
0.3333333333344741 0.8888888888884827 0.0
0.3333333333342274 0.7777777777776851 0.0
0.3333333333339809 0.6666666666669903 0.0
0.3333333333337342 0.5555555555562952 0.0
0.3333333333334876 0.4444444444452921 0.0
0.3333333333332409 0.3333333333339809 0.0
0.3333333333329943 0.2222222222226695 0.0
0.3333333333327477 0.1111111111113518 0.0
0.2222222222229879 0.888888888888464 0.0
0.2222222222228287 0.7777777777777675 0.0
0.2222222222226695 0.6666666666671908 0.0
0.2222222222225103 0.5555555555566141 0.0
0.2222222222223511 0.4444444444456261 0.0
0.2222222222221919 0.3333333333342274 0.0
0.2222222222220327 0.2222222222228287 0.0
0.2222222222218735 0.1111111111114257 0.0
0.1111111111114996 0.8888888888884452 0.0
0.1111111111114257 0.7777777777778496 0.0
0.1111111111113518 0.6666666666673913 0.0
0.1111111111112779 0.5555555555569327 0.0
0.1111111111112039 0.4444444444459603 0.0
0.11111111111113 0.3333333333344741 0.0
0.1111111111110561 0.2222222222229879 0.0
0.1111111111109822 0.1111111111114996 0.0
</DataArray>
</Points>
<Cells>
<DataArray type="Int64" Name="connectivity" format="ascii">
2 20 36 19 
19 36 37 18 
18 37 38 17 
17 38 39 16 
16 39 40 15 
15 40 41 14 
14 41 42 13 
13 42 43 12 
12 43 11 1 
20 21 44 36 
36 44 45 37 
37 45 46 38 
38 46 47 39 
39 47 48 40 
40 48 49 41 
41 49 50 42 
42 50 51 43 
43 51 10 11 
21 22 52 44 
44 52 53 45 
45 53 54 46 
46 54 55 47 
47 55 56 48 
48 56 57 49 
49 57 58 50 
50 58 59 51 
51 59 9 10 
22 23 60 52 
52 60 61 53 
53 61 62 54 
54 62 63 55 
55 63 64 56 
56 64 65 57 
57 65 66 58 
58 66 67 59 
59 67 8 9 
23 24 68 60 
60 68 69 61 
61 69 70 62 
62 70 71 63 
63 71 72 64 
64 72 73 65 
65 73 74 66 
66 74 75 67 
67 75 7 8 
24 25 76 68 
68 76 77 69 
69 77 78 70 
70 78 79 71 
71 79 80 72 
72 80 81 73 
73 81 82 74 
74 82 83 75 
75 83 6 7 
25 26 84 76 
76 84 85 77 
77 85 86 78 
78 86 87 79 
79 87 88 80 
80 88 89 81 
81 89 90 82 
82 90 91 83 
83 91 5 6 
26 27 92 84 
84 92 93 85 
85 93 94 86 
86 94 95 87 
87 95 96 88 
88 96 97 89 
89 97 98 90 
90 98 99 91 
91 99 4 5 
27 3 28 92 
92 28 29 93 
93 29 30 94 
94 30 31 95 
95 31 32 96 
96 32 33 97 
97 33 34 98 
98 34 35 99 
99 35 0 4 
</DataArray>
<DataArray type="Int64" Name="offsets" format="ascii">
4
8
12
16
20
24
28
32
36
40
44
48
52
56
60
64
68
72
76
80
84
88
92
96
100
104
108
112
116
120
124
128
132
136
140
144
148
152
156
160
164
168
172
176
180
184
188
192
196
200
204
208
212
216
220
224
228
232
236
240
244
248
252
256
260
264
268
272
276
280
284
288
292
296
300
304
308
312
316
320
324
</DataArray>
<DataArray type="UInt8" Name="types" format="ascii">
9
9
9
9
9
9
9
9
9
9
9
9
9
9
9
9
9
9
9
9
9
9
9
9
9
9
9
9
9
9
9
9
9
9
9
9
9
9
9
9
9
9
9
9
9
9
9
9
9
9
9
9
9
9
9
9
9
9
9
9
9
9
9
9
9
9
9
9
9
9
9
9
9
9
9
9
9
9
9
9
9
</DataArray>
</Cells>
</Piece>
</UnstructuredGrid>
</VTKFile>
