<?xml version="1.0"?>
<VTKFile type="UnstructuredGrid" version="0.1" byte_order="LittleEndian" compressor="vtkZLibDataCompressor">
<UnstructuredGrid>
<Piece NumberOfPoints="100" NumberOfCells="81">
<PointData>
<DataArray type="Float64" Name="displacement" NumberOfComponents="3" format="ascii" >
0.0 0.0  0.
0.07054297730495016 0.05128875141724783  0.
-0.010504331544811753 0.024146383938833844  0.
0.0 0.0  0.
0.004355247098942192 0.002228384885572041  0.
0.008391676079717691 0.0035310409989212964  0.
0.01257828392360702 0.0051464911088487655  0.
0.01709417423887042 0.007215066567326073  0.
0.02216066063717129 0.009888448051558474  0.
0.028232584510908428 0.01338339431016249  0.
0.036315732734073285 0.018305707923344502  0.
0.048863741355715536 0.026624897635523264  0.
0.029904173735274358 0.043306679590372085  0.
0.017978074959674937 0.03630731843606926  0.
0.010480317661500087 0.03150150737428166  0.
0.005603750989048762 0.02832503001095061  0.
0.0019211086088636703 0.02623529288128011  0.
-0.0011694072326302516 0.024976066600258025  0.
-0.004101824377038227 0.024354013713674606  0.
-0.00717909285567863 0.02416339366460559  0.
-0.010487884800270577 0.02072458237444214  0.
-0.010308241192295158 0.017066401826148977  0.
-0.009761558205985047 0.013300627085291056  0.
-0.008778259976010427 0.009709017994521065  0.
-0.007402115461022092 0.006550833284448385  0.
-0.005735329422875563 0.004007088583418845  0.
-0.003900513654802627 0.0021580456965929204  0.
-0.001997212232030544 0.0010087452695069312  0.
0.0 0.0  0.
0.0 0.0  0.
0.0 0.0  0.
0.0 0.0  0.
0.0 0.0  0.
0.0 0.0  0.
0.0 0.0  0.
0.0 0.0  0.
-0.007148250052604306 0.020752610271362673  0.
-0.004174580013540763 0.020944821763969293  0.
-0.001389763854500293 0.02139266548565087  0.
0.0015283228700765828 0.022141966973468  0.
0.005013438319063879 0.023190717131984905  0.
0.009744804534968149 0.024420150068138774  0.
0.01677266832196721 0.025415529338174335  0.
0.03008140884255373 0.024754201408610458  0.
-0.006942915240131812 0.016979473384367918  0.
-0.004078447514539274 0.016981540988261212  0.
-0.0014003929614218697 0.017094600929247264  0.
0.0014380291016623283 0.01726868050045819  0.
0.004895866564721833 0.017391242415741782  0.
0.009607933371349724 0.017265078496422892  0.
0.016719704291300645 0.01661815112538335  0.
0.026849183635396026 0.016414779690542447  0.
-0.006484530682523972 0.01307282640967548  0.
-0.0037585414382977664 0.012891333170025604  0.
-0.0012026578838855533 0.012724577471961727  0.
0.0015459212317878036 0.012510583443670398  0.
0.004907760880572103 0.012172738316989652  0.
0.009404945344021651 0.01167266223743456  0.
0.015434437913109375 0.011288980211991454  0.
0.022456179614866494 0.011714832124122308  0.
-0.0057681817590929385 0.009353773776956552  0.
-0.003260009141389699 0.00904603054319515  0.
-0.0008982965451151802 0.008727571129809118  0.
0.0016461624089863973 0.008364391038423924  0.
0.004710162913198216 0.00796034942248565  0.
0.008578965398869107 0.007629264176807072  0.
0.01326726224216901 0.007654483748232721  0.
0.018194729403488565 0.0083894155596494  0.
-0.004827649976858068 0.006099015689136348  0.
-0.002646963706388272 0.005721595140770834  0.
-0.0005904711985201361 0.005358447178469726  0.
0.001601177243808037 0.005004756945065217  0.
0.00415980426374351 0.0047173416302233265  0.
0.007222635550965578 0.004633869043038631  0.
0.010708789513133268 0.004954504806056782  0.
0.014214700282842104 0.005833926903388997  0.
-0.0037153619186267874 0.0034914319020785027  0.
-0.0019696896807596853 0.0030859784877899066  0.
-0.00033355227620551374 0.0027383883424479615  0.
0.0013754769662434059 0.0024590305573998126  0.
0.0033083944185050775 0.0023088700146441494  0.
0.005530956999835408 0.002407084234673265  0.
0.007984716096896131 0.0028963905119302503  0.
0.010451694204006092 0.0038374918416930275  0.
-0.0024839574314747723 0.0016202092255432833  0.
-0.001261408525421804 0.0012149608430840405  0.
-0.00014476393347194296 0.0009273721500331818  0.
0.001002691659970374 0.0007342114355430846  0.
0.002264637206371934 0.0006760775398565047  0.
0.0036731737621301295 0.0008427774521135513  0.
0.00519607662061379 0.0013470812087610373  0.
0.006810015184478774 0.002291320995557167  0.
-0.0011718149820313373 0.00043652608120897207  0.
-0.0005827522930131473 0.00015470895841876366  0.
-2.9378073500896784e-05 -1.5739746479588605e-05  0.
0.0005326721820601898 -0.00012004057297725625  0.
0.0011367699214206283 -0.00014010733394038938  0.
0.0017910769263772038 -2.2738312074244042e-05  0.
0.0024867902177924174 0.0003060685505525503  0.
0.0031942252700687206 0.000958986963233955  0.
</DataArray>
<DataArray type="Float64" Name="S11" NumberOfComponents="1" format="ascii" >
3848.223453251644 
9837.582204929826 
-33.643127796445256 
-1608.2752416936464 
3764.390215017836 
3724.5312071727985 
3877.442241393982 
4176.533218701632 
4688.27117804594 
5553.134450049396 
6970.323900480612 
8840.908034853634 
4625.974425444891 
-290.8754705493871 
-36.61775543233607 
-55.58624747797923 
-32.246347397046584 
-32.369446807291695 
-40.288758710824766 
-39.959937623794325 
-115.46468838229563 
-341.6857407787766 
-649.4733073325373 
-959.2977281318499 
-1216.144358215881 
-1396.3424063152495 
-1501.32992134755 
-1572.4024570009883 
-1252.5072440561366 
-598.3044387269229 
-4.658331822334674 
597.8318601208005 
1232.5108133621911 
1905.3869482260168 
2600.543035871799 
3399.2232512082705 
-118.74217744590275 
-106.36864849926883 
-80.89590564331361 
-68.69793093809156 
-67.73763332726124 
-23.658773782732176 
346.9216989956121 
4756.457697417192 
-317.2785987432112 
-250.6845977988969 
-171.63995140099522 
-98.52170540487012 
7.550515709580663 
295.92032251143866 
1496.2060841986747 
4724.12885108607 
-563.725059072259 
-393.0096129026326 
-222.1332342378262 
-28.067382350209567 
269.60837320889345 
897.0623150007686 
2239.6826950781806 
4348.7513339200295 
-800.5427416425027 
-501.09506199134347 
-212.0739485658725 
126.14228279458044 
609.6583743876811 
1384.7850038761812 
2558.822726796003 
3969.8166393847846 
-993.334286241985 
-573.0401638746144 
-166.72967283124447 
297.6361409347568 
895.2993666739452 
1691.325591263716 
2676.4979830430057 
3692.1506107786195 
-1129.908737041224 
-618.3917015252077 
-116.27860129829746 
436.0828362242845 
1088.1476546842719 
1864.6741234462766 
2719.318562948954 
3515.8059450029664 
-1213.8808158688048 
-642.3211892709459 
-71.7411037543749 
527.2044625692172 
1193.1891112803435 
1938.2502532349586 
2730.167204743231 
3427.5314341273393 
-1248.2259144181849 
-623.5760932400627 
-27.651857709115422 
579.4109803606015 
1229.0512034744727 
1928.6022877119915 
2664.6314611269922 
3401.764053651046 
</DataArray>
<DataArray type="Float64" Name="S22" NumberOfComponents="1" format="ascii" >
673.4301483633566 
-1450.1345975141999 
-32.83243482410594 
-261.42653684953865 
347.9529348117271 
27.629475299016114 
35.154778743055985 
55.303078697608484 
111.29301923141927 
236.5443934466434 
566.3737293015292 
-320.48485829431445 
-2343.8008317043505 
-3010.3721437645286 
-2461.910069997136 
-1829.1841702031343 
-1246.0323961508432 
-749.6116661055589 
-362.0843422216622 
-116.00857865572308 
-35.16112814077022 
-24.224127987668638 
-1.0253399128927825 
13.859700066578677 
20.507208739076013 
19.584714191779902 
18.808407696962817 
-120.38818890103047 
-212.53370002460315 
-90.89101426318872 
64.38711026134366 
229.12550769771943 
387.48439517081664 
528.04677046408 
631.2336125507006 
671.7184966660948 
-107.17045173643054 
-300.4055252593247 
-574.4903937365439 
-891.9042930953021 
-1200.8566525083565 
-1406.9448435884808 
-1279.1165646108345 
-705.04126572583 
-62.70638873576382 
-146.2088965625537 
-224.09425804122446 
-253.58002419390445 
-169.45010707806296 
123.25552504242006 
657.6605275475861 
773.2420980511716 
0.06398133839013553 
13.9055530158675 
64.67552201454143 
179.55522956864542 
379.6180111034808 
640.59755261229 
747.2578163117241 
476.34186225110165 
40.893254834730286 
113.91504178198437 
224.61271559506264 
369.33400173309826 
524.7069978996898 
612.5941546038956 
521.437247397485 
264.5236771904095 
57.99743136162739 
152.23259940796694 
273.49510157117146 
396.6861827653265 
481.89500082479157 
473.05745611703986 
341.28502907428845 
150.09425952081187 
57.10893692766782 
146.60855747368922 
255.41848191334483 
355.53336308765057 
406.66162859956813 
371.5731004278335 
245.30952684022105 
98.5685855672667 
34.730995022705066 
96.81096150951736 
199.66985197169046 
302.5118371290806 
366.2311472003765 
360.99897139330784 
272.9493386083255 
117.67009657221823 
-97.93640772478226 
-16.174450039855977 
114.4125305371278 
253.14056766518726 
373.30326988607305 
455.2647766906156 
478.77119575582594 
410.4902559946764 
</DataArray>
<DataArray type="Float64" Name="S12" NumberOfComponents="1" format="ascii" >
364.7430035889852 
-2916.8647415210685 
30.188073748590483 
111.5773381287807 
172.67916973543856 
-58.88900134875539 
-133.891453281023 
-230.1829384226341 
-408.4657520327495 
-768.8399509655924 
-1548.9866697134503 
-2501.5566871098295 
-1079.5838522617585 
689.1257971873375 
544.9736353895723 
420.0856428817201 
335.52048725033 
264.91357954599533 
183.9956927471418 
84.307351145062 
80.46614307070321 
158.07824779610607 
184.82618008602273 
166.67595720242244 
124.67651368718568 
75.6573601920836 
33.729474049676796 
63.98137789307138 
55.984180618875904 
-37.100939127396565 
-100.10120243378273 
-140.58685991701617 
-151.32584675241682 
-110.6582133515698 
13.071366771751165 
232.55734333051225 
160.26232408463173 
303.35179968683093 
412.0560485523615 
489.2695169798685 
535.8842908592093 
512.0635931270837 
142.57568005760862 
-1344.9179813302383 
272.7496213539288 
464.82504791651303 
584.1328214311817 
622.9212254124195 
539.9781603305496 
211.76645012713954 
-622.3672682595237 
-1378.5518473547143 
305.5596949797109 
489.94187432268967 
564.4028699706435 
516.6425341564875 
296.1510427876888 
-169.5645949947566 
-781.6936322530133 
-929.4329035251984 
273.26173858940615 
423.9267780459074 
451.92952772382534 
349.0005075371401 
94.91961003321686 
-284.5081106269795 
-615.8780003255331 
-571.7571535527388 
206.6612008627533 
317.05093619737454 
319.32711060035325 
211.51917358524918 
4.468482047181942 
-246.48565399784775 
-415.36532429413364 
-344.4227126235309 
131.91743000040717 
206.2421336765508 
199.65399454869794 
115.6437065820764 
-20.64308378997231 
-162.09887179035036 
-243.98261411490108 
-197.61564856059846 
71.1501545297582 
111.10227396856845 
91.34124051085082 
33.04578280079006 
-38.16002735740914 
-89.56243799017244 
-94.88686700661194 
-71.45035580181425 
51.54299925001897 
15.90460859922312 
-31.096465059385146 
-75.14210559291402 
-101.6166430541917 
-86.52448593607406 
-5.169476003985698 
113.77129398340495 
</DataArray>
</PointData>
<CellData>
</CellData>
<Points>
<DataArray type="Float64" Name="Points" NumberOfComponents="3" format="ascii">
0.0 0.0 0.0
1.0 -0.0 0.0
1.0 1.0 0.0
0.0 1.0 0.0
0.1111111111109082 0.0 0.0
0.2222222222217143 0.0 0.0
0.333333333332501 0.0 0.0
0.4444444444432878 0.0 0.0
0.5555555555543833 0.0 0.0
0.6666666666657874 0.0 0.0
0.7777777777771916 0.0 0.0
0.8888888888885959 0.0 0.0
1.0 0.1111111111109082 0.0
1.0 0.2222222222217143 0.0
1.0 0.333333333332501 0.0
1.0 0.4444444444432878 0.0
1.0 0.5555555555543833 0.0
1.0 0.6666666666657874 0.0
1.0 0.7777777777771916 0.0
1.0 0.8888888888885959 0.0
0.8888888888884262 1.0 0.0
0.777777777777932 1.0 0.0
0.6666666666675918 1.0 0.0
0.5555555555572513 1.0 0.0
0.4444444444462943 1.0 0.0
0.3333333333347207 1.0 0.0
0.2222222222231471 1.0 0.0
0.1111111111115736 1.0 0.0
0.0 0.8888888888884262 0.0
0.0 0.777777777777932 0.0
0.0 0.6666666666675918 0.0
0.0 0.5555555555572513 0.0
0.0 0.4444444444462943 0.0
0.0 0.3333333333347207 0.0
0.0 0.2222222222231471 0.0
0.0 0.1111111111115736 0.0
0.8888888888884451 0.888888888888577 0.0
0.888888888888464 0.7777777777772739 0.0
0.8888888888884828 0.666666666665988 0.0
0.8888888888885016 0.555555555554702 0.0
0.8888888888885206 0.444444444443622 0.0
0.8888888888885391 0.3333333333327477 0.0
0.8888888888885583 0.2222222222218735 0.0
0.8888888888885771 0.1111111111109822 0.0
0.7777777777778496 0.8888888888885583 0.0
0.7777777777777675 0.7777777777773562 0.0
0.7777777777776853 0.6666666666661885 0.0
0.7777777777776029 0.5555555555550207 0.0
0.7777777777775208 0.4444444444439559 0.0
0.7777777777774384 0.3333333333329943 0.0
0.7777777777773562 0.2222222222220327 0.0
0.7777777777772739 0.1111111111110561 0.0
0.6666666666673913 0.8888888888885392 0.0
0.666666666667191 0.7777777777774384 0.0
0.6666666666669905 0.666666666666389 0.0
0.6666666666667898 0.5555555555553393 0.0
0.6666666666665892 0.44444444444429 0.0
0.666666666666389 0.3333333333332409 0.0
0.6666666666661885 0.2222222222221919 0.0
0.666666666665988 0.11111111111113 0.0
0.5555555555569327 0.8888888888885205 0.0
0.5555555555566141 0.7777777777775208 0.0
0.5555555555562954 0.6666666666665892 0.0
0.5555555555559768 0.5555555555556579 0.0
0.5555555555556579 0.4444444444446241 0.0
0.5555555555553393 0.3333333333334876 0.0
0.5555555555550207 0.2222222222223511 0.0
0.555555555554702 0.1111111111112039 0.0
0.4444444444459602 0.8888888888885015 0.0
0.4444444444456262 0.7777777777776029 0.0
0.4444444444452922 0.66666666666679 0.0
0.4444444444449581 0.5555555555559768 0.0
0.4444444444446241 0.4444444444449581 0.0
0.44444444444429 0.3333333333337342 0.0
0.4444444444439559 0.2222222222225103 0.0
0.4444444444436219 0.1111111111112779 0.0
0.3333333333344741 0.8888888888884827 0.0
0.3333333333342274 0.7777777777776851 0.0
0.3333333333339809 0.6666666666669903 0.0
0.3333333333337342 0.5555555555562952 0.0
0.3333333333334876 0.4444444444452921 0.0
0.3333333333332409 0.3333333333339809 0.0
0.3333333333329943 0.2222222222226695 0.0
0.3333333333327477 0.1111111111113518 0.0
0.2222222222229879 0.888888888888464 0.0
0.2222222222228287 0.7777777777777675 0.0
0.2222222222226695 0.6666666666671908 0.0
0.2222222222225103 0.5555555555566141 0.0
0.2222222222223511 0.4444444444456261 0.0
0.2222222222221919 0.3333333333342274 0.0
0.2222222222220327 0.2222222222228287 0.0
0.2222222222218735 0.1111111111114257 0.0
0.1111111111114996 0.8888888888884452 0.0
0.1111111111114257 0.7777777777778496 0.0
0.1111111111113518 0.6666666666673913 0.0
0.1111111111112779 0.5555555555569327 0.0
0.1111111111112039 0.4444444444459603 0.0
0.11111111111113 0.3333333333344741 0.0
0.1111111111110561 0.2222222222229879 0.0
0.1111111111109822 0.1111111111114996 0.0
</DataArray>
</Points>
<Cells>
<DataArray type="Int64" Name="connectivity" format="ascii">
2 19 20 36 
18 19 36 37 
17 18 37 38 
16 17 38 39 
15 16 39 40 
14 15 40 41 
13 14 41 42 
12 13 42 43 
1 11 12 43 
20 21 36 44 
36 37 44 45 
37 38 45 46 
38 39 46 47 
39 40 47 48 
40 41 48 49 
41 42 49 50 
42 43 50 51 
10 11 43 51 
21 22 44 52 
44 45 52 53 
45 46 53 54 
46 47 54 55 
47 48 55 56 
48 49 56 57 
49 50 57 58 
50 51 58 59 
9 10 51 59 
22 23 52 60 
52 53 60 61 
53 54 61 62 
54 55 62 63 
55 56 63 64 
56 57 64 65 
57 58 65 66 
58 59 66 67 
8 9 59 67 
23 24 60 68 
60 61 68 69 
61 62 69 70 
62 63 70 71 
63 64 71 72 
64 65 72 73 
65 66 73 74 
66 67 74 75 
7 8 67 75 
24 25 68 76 
68 69 76 77 
69 70 77 78 
70 71 78 79 
71 72 79 80 
72 73 80 81 
73 74 81 82 
74 75 82 83 
6 7 75 83 
25 26 76 84 
76 77 84 85 
77 78 85 86 
78 79 86 87 
79 80 87 88 
80 81 88 89 
81 82 89 90 
82 83 90 91 
5 6 83 91 
26 27 84 92 
84 85 92 93 
85 86 93 94 
86 87 94 95 
87 88 95 96 
88 89 96 97 
89 90 97 98 
90 91 98 99 
4 5 91 99 
3 27 28 92 
28 29 92 93 
29 30 93 94 
30 31 94 95 
31 32 95 96 
32 33 96 97 
33 34 97 98 
34 35 98 99 
0 4 35 99 
</DataArray>
<DataArray type="Int64" Name="offsets" format="ascii">
4
8
12
16
20
24
28
32
36
40
44
48
52
56
60
64
68
72
76
80
84
88
92
96
100
104
108
112
116
120
124
128
132
136
140
144
148
152
156
160
164
168
172
176
180
184
188
192
196
200
204
208
212
216
220
224
228
232
236
240
244
248
252
256
260
264
268
272
276
280
284
288
292
296
300
304
308
312
316
320
324
</DataArray>
<DataArray type="UInt8" Name="types" format="ascii">
9
9
9
9
9
9
9
9
9
9
9
9
9
9
9
9
9
9
9
9
9
9
9
9
9
9
9
9
9
9
9
9
9
9
9
9
9
9
9
9
9
9
9
9
9
9
9
9
9
9
9
9
9
9
9
9
9
9
9
9
9
9
9
9
9
9
9
9
9
9
9
9
9
9
9
9
9
9
9
9
9
</DataArray>
</Cells>
</Piece>
</UnstructuredGrid>
</VTKFile>
