<?xml version="1.0"?>
<VTKFile type="UnstructuredGrid" version="0.1" byte_order="LittleEndian" compressor="vtkZLibDataCompressor">
<UnstructuredGrid>
<Piece NumberOfPoints="100" NumberOfCells="81">
<PointData>
<DataArray type="Float64" Name="displacement" NumberOfComponents="3" format="ascii" >
0.0 0.0  0.
0.07054297730495016 0.051288751417247785  0.
-0.010504331544811736 0.024146383938833806  0.
0.0 0.0  0.
0.004355247098942189 0.00222838488557204  0.
0.008391676079717688 0.003531040998921294  0.
0.012578283923607015 0.005146491108848762  0.
0.01709417423887042 0.007215066567326066  0.
0.022160660637171287 0.009888448051558465  0.
0.028232584510908435 0.013383394310162475  0.
0.03631573273407329 0.018305707923344485  0.
0.048863741355715536 0.026624897635523243  0.
0.029904173735274358 0.04330667959037205  0.
0.01797807495967494 0.036307318436069234  0.
0.01048031766150009 0.03150150737428164  0.
0.005603750989048769 0.028325030010950585  0.
0.001921108608863676 0.026235292881280084  0.
-0.001169407232630246 0.024976066600257998  0.
-0.00410182437703822 0.02435401371367458  0.
-0.007179092855678619 0.02416339366460556  0.
-0.010487884800270561 0.020724582374442115  0.
-0.010308241192295144 0.01706640182614896  0.
-0.009761558205985035 0.013300627085291044  0.
-0.008778259976010417 0.009709017994521053  0.
-0.007402115461022082 0.006550833284448375  0.
-0.005735329422875553 0.004007088583418838  0.
-0.0039005136548026197 0.0021580456965929157  0.
-0.0019972122320305406 0.0010087452695069288  0.
0.0 0.0  0.
0.0 0.0  0.
0.0 0.0  0.
0.0 0.0  0.
0.0 0.0  0.
0.0 0.0  0.
0.0 0.0  0.
0.0 0.0  0.
-0.007148250052604297 0.02075261027136265  0.
-0.004174580013540756 0.02094482176396927  0.
-0.0013897638545002878 0.021392665485650844  0.
0.0015283228700765877 0.022141966973467975  0.
0.005013438319063886 0.02319071713198488  0.
0.009744804534968149 0.02442015006813875  0.
0.016772668321967218 0.02541552933817431  0.
0.030081408842553732 0.024754201408610434  0.
-0.0069429152401318 0.0169794733843679  0.
-0.004078447514539266 0.016981540988261195  0.
-0.0014003929614218647 0.017094600929247243  0.
0.0014380291016623324 0.01726868050045817  0.
0.0048958665647218375 0.01739124241574177  0.
0.009607933371349726 0.017265078496422875  0.
0.01671970429130065 0.01661815112538333  0.
0.02684918363539603 0.016414779690542433  0.
-0.006484530682523961 0.013072826409675468  0.
-0.003758541438297758 0.01289133317002559  0.
-0.0012026578838855474 0.012724577471961712  0.
0.0015459212317878077 0.012510583443670384  0.
0.004907760880572104 0.012172738316989638  0.
0.009404945344021655 0.011672662237434546  0.
0.01543443791310938 0.011288980211991444  0.
0.022456179614866498 0.011714832124122295  0.
-0.005768181759092929 0.009353773776956542  0.
-0.003260009141389691 0.009046030543195138  0.
-0.0008982965451151745 0.008727571129809106  0.
0.001646162408986402 0.008364391038423914  0.
0.004710162913198217 0.007960349422485637  0.
0.008578965398869109 0.0076292641768070605  0.
0.013267262242169012 0.00765448374823271  0.
0.018194729403488572 0.008389415559649394  0.
-0.0048276499768580595 0.0060990156891363384  0.
-0.002646963706388266 0.005721595140770824  0.
-0.0005904711985201317 0.005358447178469717  0.
0.00160117724380804 0.005004756945065209  0.
0.004159804263743513 0.00471734163022332  0.
0.007222635550965578 0.0046338690430386235  0.
0.010708789513133267 0.004954504806056775  0.
0.014214700282842106 0.005833926903388992  0.
-0.003715361918626781 0.0034914319020784967  0.
-0.0019696896807596806 0.003085978487789901  0.
-0.0003335522762055105 0.002738388342447956  0.
0.001375476966243407 0.002459030557399807  0.
0.0033083944185050796 0.002308870014644144  0.
0.00553095699983541 0.0024070842346732607  0.
0.00798471609689613 0.002896390511930245  0.
0.01045169420400609 0.0038374918416930227  0.
-0.0024839574314747676 0.0016202092255432796  0.
-0.0012614085254218008 0.0012149608430840374  0.
-0.0001447639334719408 0.0009273721500331789  0.
0.0010026916599703754 0.0007342114355430815  0.
0.002264637206371935 0.0006760775398565019  0.
0.00367317376213013 0.0008427774521135487  0.
0.00519607662061379 0.0013470812087610356  0.
0.0068100151844787725 0.0022913209955571644  0.
-0.0011718149820313351 0.0004365260812089706  0.
-0.0005827522930131459 0.00015470895841876252  0.
-2.937807350089564e-05 -1.5739746479589628e-05  0.
0.0005326721820601903 -0.00012004057297725742  0.
0.0011367699214206283 -0.00014010733394039047  0.
0.001791076926377204 -2.273831207424499e-05  0.
0.002486790217792417 0.0003060685505525495  0.
0.0031942252700687193 0.0009589869632339545  0.
</DataArray>
<DataArray type="Float64" Name="S11" NumberOfComponents="1" format="ascii" >
3848.2234532516422 
9837.582204929826 
-33.643127796445015 
-1608.2752416936437 
3764.3902150178346 
3724.531207172797 
3877.4422413939837 
4176.533218701636 
4688.271178045944 
5553.1344500494 
6970.323900480611 
8840.908034853634 
4625.97442544489 
-290.8754705493873 
-36.61775543233473 
-55.58624747797856 
-32.24634739704611 
-32.36944680729127 
-40.28875871082466 
-39.95993762379415 
-115.46468838229546 
-341.6857407787761 
-649.4733073325358 
-959.2977281318485 
-1216.1443582158809 
-1396.3424063152486 
-1501.3299213475475 
-1572.4024570009854 
-1252.5072440561344 
-598.3044387269211 
-4.658331822333565 
597.8318601208009 
1232.5108133621911 
1905.3869482260166 
2600.5430358717986 
3399.2232512082683 
-118.7421774459031 
-106.36864849926931 
-80.89590564331333 
-68.69793093809112 
-67.73763332726047 
-23.658773782730748 
346.92169899561236 
4756.4576974171905 
-317.27859874321103 
-250.68459779889707 
-171.63995140099541 
-98.52170540487013 
7.550515709581411 
295.9203225114395 
1496.206084198675 
4724.12885108607 
-563.7250590722575 
-393.00961290263183 
-222.13323423782666 
-28.06738235021008 
269.608373208894 
897.0623150007696 
2239.682695078181 
4348.75133392003 
-800.5427416425013 
-501.095061991342 
-212.07394856587192 
126.14228279458045 
609.6583743876815 
1384.7850038761826 
2558.822726796004 
3969.8166393847873 
-993.3342862419838 
-573.040163874613 
-166.72967283124302 
297.6361409347578 
895.2993666739453 
1691.3255912637167 
2676.4979830430075 
3692.150610778623 
-1129.9087370412226 
-618.3917015252065 
-116.27860129829648 
436.0828362242853 
1088.147654684272 
1864.674123446276 
2719.318562948954 
3515.805945002968 
-1213.880815868803 
-642.3211892709442 
-71.74110375437385 
527.2044625692178 
1193.1891112803442 
1938.250253234959 
2730.167204743231 
3427.531434127338 
-1248.2259144181824 
-623.576093240061 
-27.651857709114182 
579.4109803606023 
1229.051203474473 
1928.6022877119915 
2664.6314611269922 
3401.7640536510457 
</DataArray>
<DataArray type="Float64" Name="S22" NumberOfComponents="1" format="ascii" >
673.4301483633558 
-1450.1345975141953 
-32.83243482410937 
-261.4265368495381 
347.95293481172655 
27.629475299015404 
35.15477874305644 
55.303078697610715 
111.29301923142253 
236.5443934466464 
566.3737293015306 
-320.48485829431195 
-2343.8008317043464 
-3010.3721437645245 
-2461.910069997135 
-1829.1841702031359 
-1246.0323961508432 
-749.6116661055585 
-362.084342221663 
-116.0085786557256 
-35.16112814077108 
-24.224127987667273 
-1.0253399128924219 
13.85970006657822 
20.507208739075523 
19.584714191779533 
18.808407696962597 
-120.38818890103022 
-212.53370002460264 
-90.89101426318828 
64.38711026134405 
229.1255076977196 
387.48439517081664 
528.0467704640799 
631.2336125507004 
671.7184966660941 
-107.17045173643143 
-300.40552525932515 
-574.4903937365433 
-891.9042930953032 
-1200.856652508358 
-1406.9448435884794 
-1279.1165646108325 
-705.0412657258283 
-62.70638873576265 
-146.2088965625528 
-224.09425804122446 
-253.58002419390692 
-169.45010707806412 
123.25552504242167 
657.6605275475853 
773.2420980511712 
0.06398133839149622 
13.9055530158692 
64.67552201454085 
179.55522956864354 
379.61801110348057 
640.5975526122904 
747.2578163117232 
476.3418622511023 
40.8932548347309 
113.91504178198541 
224.61271559506218 
369.3340017330977 
524.7069978996899 
612.5941546038957 
521.4372473974846 
264.52367719041075 
57.99743136162756 
152.2325994079674 
273.49510157117146 
396.68618276532624 
481.8950008247916 
473.0574561170399 
341.2850290742879 
150.09425952081247 
57.10893692766776 
146.60855747368933 
255.4184819133448 
355.53336308765046 
406.661628599568 
371.57310042783325 
245.3095268402207 
98.56858556726675 
34.730995022704974 
96.81096150951753 
199.66985197169072 
302.51183712908073 
366.2311472003764 
360.99897139330767 
272.9493386083255 
117.67009657221797 
-97.93640772478196 
-16.17445003985559 
114.41253053712816 
253.14056766518752 
373.30326988607294 
455.26477669061535 
478.77119575582583 
410.4902559946761 
</DataArray>
<DataArray type="Float64" Name="S12" NumberOfComponents="1" format="ascii" >
364.74300358898506 
-2916.8647415210735 
30.188073748588714 
111.57733812878024 
172.67916973543845 
-58.8890013487553 
-133.891453281023 
-230.18293842263301 
-408.4657520327488 
-768.839950965594 
-1548.986669713453 
-2501.5566871098335 
-1079.5838522617614 
689.125797187337 
544.9736353895727 
420.08564288172073 
335.5204872503292 
264.91357954599414 
183.99569274714122 
84.30735114506103 
80.46614307070169 
158.07824779610476 
184.8261800860219 
166.67595720242218 
124.6765136871853 
75.6573601920834 
33.72947404967675 
63.9813778930711 
55.984180618875506 
-37.1009391273969 
-100.10120243378303 
-140.58685991701645 
-151.3258467524172 
-110.6582133515701 
13.071366771751045 
232.55734333051214 
160.26232408463068 
303.3517996868301 
412.05604855236027 
489.269516979867 
535.8842908592084 
512.0635931270824 
142.57568005760686 
-1344.9179813302408 
272.7496213539278 
464.8250479165122 
584.1328214311803 
622.9212254124178 
539.9781603305482 
211.7664501271375 
-622.3672682595263 
-1378.5518473547165 
305.55969497971057 
489.9418743226895 
564.4028699706427 
516.6425341564869 
296.1510427876884 
-169.56459499475787 
-781.6936322530149 
-929.4329035251999 
273.2617385894061 
423.92677804590744 
451.92952772382506 
349.00050753714 
94.91961003321624 
-284.50811062698057 
-615.8780003255347 
-571.7571535527392 
206.66120086275305 
317.0509361973742 
319.3271106003527 
211.51917358524855 
4.468482047181206 
-246.4856539978484 
-415.3653242941349 
-344.4227126235313 
131.91743000040685 
206.24213367655022 
199.65399454869743 
115.6437065820758 
-20.643083789972994 
-162.0988717903507 
-243.98261411490168 
-197.61564856059888 
71.15015452975801 
111.10227396856807 
91.34124051085037 
33.04578280078948 
-38.16002735740978 
-89.56243799017285 
-94.8868670066123 
-71.45035580181445 
51.542999250018674 
15.904608599222776 
-31.096465059385526 
-75.14210559291439 
-101.61664305419214 
-86.52448593607441 
-5.169476003985848 
113.77129398340486 
</DataArray>
</PointData>
<CellData>
</CellData>
<Points>
<DataArray type="Float64" Name="Points" NumberOfComponents="3" format="ascii">
0.0 0.0 0.0
1.0 -0.0 0.0
1.0 1.0 0.0
0.0 1.0 0.0
0.1111111111109082 0.0 0.0
0.2222222222217143 0.0 0.0
0.333333333332501 0.0 0.0
0.4444444444432878 0.0 0.0
0.5555555555543833 0.0 0.0
0.6666666666657874 0.0 0.0
0.7777777777771916 0.0 0.0
0.8888888888885959 0.0 0.0
1.0 0.1111111111109082 0.0
1.0 0.2222222222217143 0.0
1.0 0.333333333332501 0.0
1.0 0.4444444444432878 0.0
1.0 0.5555555555543833 0.0
1.0 0.6666666666657874 0.0
1.0 0.7777777777771916 0.0
1.0 0.8888888888885959 0.0
0.8888888888884262 1.0 0.0
0.777777777777932 1.0 0.0
0.6666666666675918 1.0 0.0
0.5555555555572513 1.0 0.0
0.4444444444462943 1.0 0.0
0.3333333333347207 1.0 0.0
0.2222222222231471 1.0 0.0
0.1111111111115736 1.0 0.0
0.0 0.8888888888884262 0.0
0.0 0.777777777777932 0.0
0.0 0.6666666666675918 0.0
0.0 0.5555555555572513 0.0
0.0 0.4444444444462943 0.0
0.0 0.3333333333347207 0.0
0.0 0.2222222222231471 0.0
0.0 0.1111111111115736 0.0
0.8888888888884451 0.888888888888577 0.0
0.888888888888464 0.7777777777772739 0.0
0.8888888888884828 0.666666666665988 0.0
0.8888888888885016 0.555555555554702 0.0
0.8888888888885206 0.444444444443622 0.0
0.8888888888885391 0.3333333333327477 0.0
0.8888888888885583 0.2222222222218735 0.0
0.8888888888885771 0.1111111111109822 0.0
0.7777777777778496 0.8888888888885583 0.0
0.7777777777777675 0.7777777777773562 0.0
0.7777777777776853 0.6666666666661885 0.0
0.7777777777776029 0.5555555555550207 0.0
0.7777777777775208 0.4444444444439559 0.0
0.7777777777774384 0.3333333333329943 0.0
0.7777777777773562 0.2222222222220327 0.0
0.7777777777772739 0.1111111111110561 0.0
0.6666666666673913 0.8888888888885392 0.0
0.666666666667191 0.7777777777774384 0.0
0.6666666666669905 0.666666666666389 0.0
0.6666666666667898 0.5555555555553393 0.0
0.6666666666665892 0.44444444444429 0.0
0.666666666666389 0.3333333333332409 0.0
0.6666666666661885 0.2222222222221919 0.0
0.666666666665988 0.11111111111113 0.0
0.5555555555569327 0.8888888888885205 0.0
0.5555555555566141 0.7777777777775208 0.0
0.5555555555562954 0.6666666666665892 0.0
0.5555555555559768 0.5555555555556579 0.0
0.5555555555556579 0.4444444444446241 0.0
0.5555555555553393 0.3333333333334876 0.0
0.5555555555550207 0.2222222222223511 0.0
0.555555555554702 0.1111111111112039 0.0
0.4444444444459602 0.8888888888885015 0.0
0.4444444444456262 0.7777777777776029 0.0
0.4444444444452922 0.66666666666679 0.0
0.4444444444449581 0.5555555555559768 0.0
0.4444444444446241 0.4444444444449581 0.0
0.44444444444429 0.3333333333337342 0.0
0.4444444444439559 0.2222222222225103 0.0
0.4444444444436219 0.1111111111112779 0.0
0.3333333333344741 0.8888888888884827 0.0
0.3333333333342274 0.7777777777776851 0.0
0.3333333333339809 0.6666666666669903 0.0
0.3333333333337342 0.5555555555562952 0.0
0.3333333333334876 0.4444444444452921 0.0
0.3333333333332409 0.3333333333339809 0.0
0.3333333333329943 0.2222222222226695 0.0
0.3333333333327477 0.1111111111113518 0.0
0.2222222222229879 0.888888888888464 0.0
0.2222222222228287 0.7777777777777675 0.0
0.2222222222226695 0.6666666666671908 0.0
0.2222222222225103 0.5555555555566141 0.0
0.2222222222223511 0.4444444444456261 0.0
0.2222222222221919 0.3333333333342274 0.0
0.2222222222220327 0.2222222222228287 0.0
0.2222222222218735 0.1111111111114257 0.0
0.1111111111114996 0.8888888888884452 0.0
0.1111111111114257 0.7777777777778496 0.0
0.1111111111113518 0.6666666666673913 0.0
0.1111111111112779 0.5555555555569327 0.0
0.1111111111112039 0.4444444444459603 0.0
0.11111111111113 0.3333333333344741 0.0
0.1111111111110561 0.2222222222229879 0.0
0.1111111111109822 0.1111111111114996 0.0
</DataArray>
</Points>
<Cells>
<DataArray type="Int64" Name="connectivity" format="ascii">
2 19 20 36 
18 19 36 37 
17 18 37 38 
16 17 38 39 
15 16 39 40 
14 15 40 41 
13 14 41 42 
12 13 42 43 
1 11 12 43 
20 21 36 44 
36 37 44 45 
37 38 45 46 
38 39 46 47 
39 40 47 48 
40 41 48 49 
41 42 49 50 
42 43 50 51 
10 11 43 51 
21 22 44 52 
44 45 52 53 
45 46 53 54 
46 47 54 55 
47 48 55 56 
48 49 56 57 
49 50 57 58 
50 51 58 59 
9 10 51 59 
22 23 52 60 
52 53 60 61 
53 54 61 62 
54 55 62 63 
55 56 63 64 
56 57 64 65 
57 58 65 66 
58 59 66 67 
8 9 59 67 
23 24 60 68 
60 61 68 69 
61 62 69 70 
62 63 70 71 
63 64 71 72 
64 65 72 73 
65 66 73 74 
66 67 74 75 
7 8 67 75 
24 25 68 76 
68 69 76 77 
69 70 77 78 
70 71 78 79 
71 72 79 80 
72 73 80 81 
73 74 81 82 
74 75 82 83 
6 7 75 83 
25 26 76 84 
76 77 84 85 
77 78 85 86 
78 79 86 87 
79 80 87 88 
80 81 88 89 
81 82 89 90 
82 83 90 91 
5 6 83 91 
26 27 84 92 
84 85 92 93 
85 86 93 94 
86 87 94 95 
87 88 95 96 
88 89 96 97 
89 90 97 98 
90 91 98 99 
4 5 91 99 
3 27 28 92 
28 29 92 93 
29 30 93 94 
30 31 94 95 
31 32 95 96 
32 33 96 97 
33 34 97 98 
34 35 98 99 
0 4 35 99 
</DataArray>
<DataArray type="Int64" Name="offsets" format="ascii">
4
8
12
16
20
24
28
32
36
40
44
48
52
56
60
64
68
72
76
80
84
88
92
96
100
104
108
112
116
120
124
128
132
136
140
144
148
152
156
160
164
168
172
176
180
184
188
192
196
200
204
208
212
216
220
224
228
232
236
240
244
248
252
256
260
264
268
272
276
280
284
288
292
296
300
304
308
312
316
320
324
</DataArray>
<DataArray type="UInt8" Name="types" format="ascii">
9
9
9
9
9
9
9
9
9
9
9
9
9
9
9
9
9
9
9
9
9
9
9
9
9
9
9
9
9
9
9
9
9
9
9
9
9
9
9
9
9
9
9
9
9
9
9
9
9
9
9
9
9
9
9
9
9
9
9
9
9
9
9
9
9
9
9
9
9
9
9
9
9
9
9
9
9
9
9
9
9
</DataArray>
</Cells>
</Piece>
</UnstructuredGrid>
</VTKFile>
